# Model for PE for 12 atoms

     12     atoms
     11     bonds
     6     angles
     1     dihedrals

     2     atom types
     2     bond types
     1     angle types
     1     dihedral types

     0.0 50     xlo xhi
     -5.0 20     ylo yhi
     -5.0 20     zlo zhi

Masses

     1   12.011
     2   1.008

Atoms

     1 1 1 5.0000 10.0000 10.0000
     2 1 2 5.0000 10.4950 10.8574
     3 1 2 5.0000 10.4950 9.1426
     4 1 1 6.0861 9.2324 10.0000
     5 1 2 6.0861 8.7374 10.8574
     6 1 2 6.0861 8.7374 9.1426
     7 1 1 7.1723 10.0000 10.0000
     8 1 2 7.1723 10.4950 9.1426
     9 1 2 7.1723 10.4950 10.8574
     10 1 1 8.2584 9.2324 10.0000
     11 1 2 8.2584 8.7374 10.8574
     12 1 2 8.2584 8.7374 9.1426

Bonds

     1 2 1 2
     2 2 1 3
     3 1 1 4
     4 2 4 5
     5 2 4 6
     6 1 4 7
     7 2 7 8
     8 2 7 9
     9 1 7 10
     10 2 10 11
     11 2 10 12

Angles

     1 1 2 1 3
     2 1 5 4 6
     3 1 1 4 7
     4 1 8 7 9
     5 1 4 7 10
     6 1 11 10 12

Dihedrals

     1 1 1 4 7 10
